15
Step: 0	Time: 0.0ps	Temperature: 246.80679057044003K
Ar	-3.1231966066566663	-0.39698908632999996	-1.0515018944099999
Ar	-2.6029497313566665	1.69066476037	-0.39473600160999994
Ar	-3.1077296080566663	0.12258430467000003	1.13713534199
Ar	-2.2445017799566664	-1.8340528673299998	0.43948465269000003
Ar	-1.4277366453566664	0.70315843177	-2.03912858481
Ar	-1.2062042786566665	-1.47523793733	-1.5235523323099998
Ar	-1.4027223378566664	1.54383373017	1.5021395999900002
Ar	-0.3644410554566666	1.9026475227700002	-0.46088509550999995
Ar	-0.005994868556666422	-1.6220565890299998	0.37333058369000005
Ar	-1.1811897547566665	-0.63455226973	2.01771373029
Ar	5.100379516814333	0.908291768527	-1.1467476023329999
Ar	5.115827798714333	1.427855668027	1.041859737467
Ar	1.726841554814333	1.6136939564269999	-0.716678236533
Ar	1.907407327014333	-0.1618602489730001	-0.296444688433
Ar	2.430443527914333	0.01889067212700002	-1.285313535833
15
Step: 10	Time: 0.001ps	Temperature: 246.8133731584427K
Ar	-3.121996533289881	-0.3969890689319695	-1.0515018524246416
Ar	-2.601749678973918	1.6906646935529348	-0.39473598611681004
Ar	-3.1065295353108153	0.12258430110930486	1.1371352956880099
Ar	-2.2433017420336685	-1.834052791960222	0.4394846345308523
Ar	-1.4265366685006684	0.7031584158399357	-2.0391285158353734
Ar	-1.2050043075038273	-1.4752378971791664	-1.5235522766084253
Ar	-1.4015223618730681	1.5438336850111878	1.5021395458495006
Ar	-0.36324107116858667	1.902647490347503	-0.46088509475675227
Ar	-0.004794923735348673	-1.6220565662813933	0.373330576710061
Ar	-1.1799897844765665	-0.6345522588051578	2.017713662875821
Ar	5.0997795170398215	0.9082917761107302	-1.146747570387348
Ar	5.115227798488845	1.42785566044327	1.041859705521348
Ar	1.7262415709217405	1.6136937200298407	-0.7166782414034352
Ar	1.906807405475956	-0.16186009443582167	-0.2964449104229877
Ar	2.4298433735449865	0.0188907512840241	-1.2853132988848175
15
Step: 20	Time: 0.002ps	Temperature: 246.82076768979127K
Ar	-3.1206629463429127	-0.3969890087906176	-1.0515017072900428
Ar	-2.6004161645643866	1.690664462580316	-0.3947359325600933
Ar	-3.105195950510287	0.12258428880072728	1.1371351356317172
Ar	-2.241968277608461	-1.8340525314226659	0.43948457175847705
Ar	-1.425203415171316	0.7031583607730386	-2.039128277404523
Ar	-1.203671073889099	-1.4752377583861385	-1.5235520840597336
Ar	-1.4001891115594178	1.543833528906624	1.5021393586971228
Ar	-0.3619077916968856	1.9026473781978823	-0.460885092216516
Ar	-0.0034617810734989003	-1.6220564875764631	0.3733305525507903
Ar	-1.1786565538787162	-0.6345522210402682	2.0177134298391084
Ar	5.099112851152621	0.9082918023260976	-1.1467474599579173
Ar	5.114561131042712	1.4278556342279027	1.0418595950919174
Ar	1.7255749594840586	1.6136929029253517	-0.7166782581759632
Ar	1.906141009953272	-0.16185956030449897	-0.2964456777428054
Ar	2.429176173267319	0.018891024917712444	-1.285312479826536
15
Step: 30	Time: 0.003ps	Temperature: 246.82824724824863K
Ar	-3.1193291782431474	-0.3969889056911135	-1.051501458487774
Ar	-2.5990825208146	1.6906640666270842	-0.3947358407485401
Ar	-3.103862186090136	0.12258426770030256	1.1371348612493908
Ar	-2.2406347195460925	-1.8340520847866635	0.4394844641486444
Ar	-1.4238702189877452	0.7031582663726115	-2.039127868665764
Ar	-1.202337911502036	-1.475237520455152	-1.5235517539761187
Ar	-1.3988559205456301	1.5438332612986987	1.5021390378643584
Ar	-0.3605745498208059	1.9026471858015936	-0.46088508798549327
Ar	-0.0021287744705714207	-1.6220563525221596	0.37333051107454684
Ar	-1.1773233966634467	-0.6345521563004469	2.017713030347439
Ar	5.098446185822182	0.908291847266742	-1.1467472706502617
Ar	5.113894463039817	1.4278555892872586	1.0418594057842618
Ar	1.7249083866195254	1.6136915023110774	-0.7166782868053423
Ar	1.9054748079274928	-0.1618586447949961	-0.29644699300884625
Ar	2.4285085918801963	0.01889149402016437	-1.2853110758054966
15
Step: 40	Time: 0.004ps	Temperature: 246.83581208027184K
Ar	-3.117995228990271	-0.39698875963338814	-1.0515011060176798
Ar	-2.597748747724379	1.690663505692969	-0.394735710682089
Ar	-3.102528242050049	0.12258423780802116	1.137134472540855
Ar	-2.2393010678463905	-1.834051452051912	0.4394843117012807
Ar	-1.422537079950085	0.7031581326386036	-2.0391272896188473
Ar	-1.2010048203427808	-1.475237183386078	-1.5235512863573544
Ar	-1.397522788831846	1.5438328821872505	1.502138583351022
Ar	-0.3592413447859726	1.902646913038174	-0.4608850821701876
Ar	-0.0007959038110211926	-1.6220561610055657	0.3733304522295317
Ar	-1.1759903128309075	-0.6345520645856787	2.0177124644005575
Ar	5.097779521048506	0.9082919109326851	-1.1467470024642874
Ar	5.11322779448016	1.427855525621315	1.0418591375982875
Ar	1.7242418515751052	1.6136895183019273	-0.7166783271852925
Ar	1.9048087992161709	-0.16185734804016746	-0.29644885604456533
Ar	2.4278406294487627	0.018892158616844887	-1.2853090869462271
15
Step: 50	Time: 0.005ps	Temperature: 246.84346242704325K
Ar	-3.1166610985838363	-0.3969885706173438	-1.0515006498795385
Ar	-2.5964148452934714	1.690662779777587	-0.394735542360653
Ar	-3.1011941183895826	0.1225841991238696	1.137133969505863
Ar	-2.2379673225091126	-1.8340506332179818	0.4394841144162818
Ar	-1.4212039980585158	0.7031579595709431	-2.0391265402634176
Ar	-1.199671800411535	-1.475236747178734	-1.5235506812031199
Ar	-1.3961897164182633	1.5438323915720518	1.502137995156851
Ar	-0.3579081758327606	1.902646559786131	-0.4608850748779573
Ar	0.0005368310209749981	-1.6220559129132115	0.37333037596369106
Ar	-1.1746573023813096	-0.6345519458959403	2.017711731998103
Ar	5.097112856831593	0.908291993323959	-1.1467466553998604
Ar	5.112561125363739	1.4278554432300408	1.0418587905338605
Ar	1.723575353593069	1.6136869510115277	-0.7166783792087724
Ar	1.9041429836087114	-0.16185567018172442	-0.2964512666211962
Ar	2.427172286065301	0.01889301874382656	-1.28530651342513
15
Step: 60	Time: 0.006ps	Temperature: 246.85119852449873K
Ar	-3.1153267870232653	-0.39698833864285393	-1.0515000900730647
Ar	-2.595080813521547	1.6906618888804423	-0.39473533578411935
Ar	-3.0998598151081636	0.12258415164783037	1.137133352144095
Ar	-2.236633483533945	-1.8340496282843177	0.439483872293513
Ar	-1.4198709733132735	0.7031577471695365	-2.039125620599017
Ar	-1.1983388517085598	-1.4752362118328834	-1.5235499385130002
Ar	-1.3948567033051387	1.5438317894528069	1.5021372732815073
Ar	-0.3565750421962529	1.902646125922933	-0.4608850662170232
Ar	0.0018694301415192733	-1.6220556081310744	0.37333028222471465
Ar	-1.1733243653149255	-0.6345518002312026	2.0177108331396068
Ar	5.096446193171445	0.9082920944406049	-1.1467462294568087
Ar	5.111894455690554	1.4278553421133953	1.0418583645908088
Ar	1.7229088919109545	1.6136838005522331	-0.7166784427679715
Ar	1.9034773608663729	-0.16185361137023624	-0.2964542244577572
Ar	2.426503561849228	0.01889407444778749	-1.2853033554704774
15
Step: 70	Time: 0.007ps	Temperature: 246.85902060335542K
Ar	-3.113992294307849	-0.39698806370976325	-1.0514994265979059
Ar	-2.5937466524082056	1.6906608330009267	-0.39473509095234993
Ar	-3.0985253322050874	0.1225840953798821	1.1371326204551575
Ar	-2.2352995509205025	-1.8340484372502381	0.43948358533280873
Ar	-1.4185380057146468	0.7031574954342694	-2.039124530625084
Ar	-1.1970059742341759	-1.4752355773482364	-1.523549058286486
Ar	-1.3935237494927883	1.5438310758291536	1.502136417724574
Ar	-0.35524194310619883	1.902645611325	-0.4608850562964761
Ar	0.003201893666993394	-1.622055246544576	0.3733301709600351
Ar	-1.1719915016320894	-0.6345516275914296	2.017709767824495
Ar	5.0957795300680635	0.9082922142826727	-1.1467457246349195
Ar	5.111227785460603	1.4278552222713277	1.0418578597689196
Ar	1.7222424657615254	1.6136800670351346	-0.7166785177543026
Ar	1.9028119307222746	-0.16185117176513106	-0.2964577292210595
Ar	2.4258344569470873	0.018895325786009165	-1.2852996133623993
15
Step: 80	Time: 0.008ps	Temperature: 246.8669288891446K
Ar	-3.112657620436747	-0.3969877458178877	-1.0514986594536464
Ar	-2.592412361952971	1.6906596121383184	-0.3947348078651809
Ar	-3.09719066967952	0.1225840303199994	1.1371317744385843
Ar	-2.233965524668327	-1.8340470601149352	0.4394832535339727
Ar	-1.4172050952629773	0.7031572043650064	-2.0391232703409528
Ar	-1.1956731679887633	-1.4752348437244485	-1.523548040522974
Ar	-1.3921908549815858	1.543830250700662	1.5021354284855593
Ar	-0.35390887778697216	1.902645015867695	-0.46088504522628454
Ar	0.004534221714059499	-1.6220548280385798	0.3733300421168265
Ar	-1.1706587113331979	-0.6345514279765784	2.0177085360520874
Ar	5.095112867521449	0.9082923528502224	-1.1467451409339418
Ar	5.1105611146738825	1.4278550837037782	1.0418572760679419
Ar	1.7215760743727262	1.6136757505700718	-0.7166786040583933
Ar	1.9021466928813981	-0.16184835153469662	-0.29646178052571587
Ar	2.4251649715325487	0.018896772826374055	-1.2852952874328758
15
Step: 90	Time: 0.009000000000000001ps	Temperature: 246.87492360224374K
Ar	-3.111322765408987	-0.39698738496701447	-1.0514977886398047
Ar	-2.591077942155295	1.6906582262917833	-0.39473448652242277
Ar	-3.0958558275304955	0.12258395646815289	1.137130814093837
Ar	-2.232631404776893	-1.8340454968774744	0.43948287689677845
Ar	-1.4158722419586605	0.7031568739615898	-2.0391218397458526
Ar	-1.194340432972761	-1.475234010961123	-1.5235468852217662
Ar	-1.3908580197719642	1.543829314066836	1.502134305563894
Ar	-0.3525758454575281	1.9026443394253152	-0.46088503311730306
Ar	0.0058664143996608326	-1.6220543524973887	0.37332989564200353
Ar	-1.1693259944187095	-0.6345512013865998	2.0177071378215974
Ar	5.0944462055316055	0.9082925101433226	-1.146744478353585
Ar	5.1098944433303926	1.427854926410678	1.041856613487585
Ar	1.7209097169676437	1.6136708512656424	-0.7166787015700794
Ar	1.901481647020595	-0.16184515085608087	-0.2964663779341501
Ar	2.424495105806399	0.018898415647363095	-1.2852903780657245
15
Step: 100	Time: 0.01ps	Temperature: 246.88300495791398K
Ar	-3.1099877292234646	-0.39698698115690206	-1.0514968141558343
Ar	-2.5897433930145546	1.6906566754603745	-0.3947341269238605
Ar	-3.0945208057569196	0.12258387382430923	1.1371297394203042
Ar	-2.2312971912455994	-1.8340437475367957	0.4394824554209682
Ar	-1.414539445802145	0.7031565042238413	-2.039120238838911
Ar	-1.1930077691866676	-1.4752330790578088	-1.5235455923820709
Ar	-1.3895252438644143	1.543828265927111	1.5021330489589326
Ar	-0.3512428453313604	1.90264358187108	-0.46088502008127924
Ar	0.007198471841022478	-1.6220538198047436	0.3733297314822201
Ar	-1.167993350889145	-0.6345509478214373	2.0177055731321327
Ar	5.093779544098534	0.9082926861620519	-1.1467437368935194
Ar	5.109227771430131	1.4278547503919488	1.0418558720275195
Ar	1.7202433927644607	1.613665369229212	-0.7166788101783959
Ar	1.9008167927885895	-0.1618415699152924	-0.29647152095660856
Ar	2.4238248599965373	0.018900254338052938	-1.285284885696591
15
Step: 110	Time: 0.011000000000000001ps	Temperature: 246.89117316633644K
Ar	-3.1086525118789465	-0.3969865343872801	-1.0514957360011232
Ar	-2.588408714530055	1.690654959643032	-0.3947337290692535
Ar	-3.0931856043575654	0.12258378238843116	1.1371285504173014
Ar	-2.2299628840737764	-1.8340418120917124	0.4394819891062541
Ar	-1.4132067067939336	0.7031560951515611	-2.0391184676191485
Ar	-1.1916751766310416	-1.4752320480140004	-1.5235441620030008
Ar	-1.388192527259487	1.543827106280856	1.502131658669953
Ar	-0.34990987661645817	1.9026427430771238	-0.46088500623086254
Ar	0.008530394155652089	-1.62205322984382	0.37332954958386827
Ar	-1.166660780745086	-0.634550667281028	2.0177038419826934
Ar	5.093112883222238	0.9082928809064978	-1.146742916553376
Ar	5.108561098973094	1.427854555647503	1.0418550516873761
Ar	1.719577100976416	1.613659304566926	-0.7166789297715693
Ar	1.9001521298059874	-0.16183760890720061	-0.29647720905117114
Ar	2.423154234357968	0.018902288998112995	-1.285278810812934
15
Step: 120	Time: 0.012ps	Temperature: 246.89942843265368K
Ar	-3.107317113374066	-0.39698604465784953	-1.0514945541749956
Ar	-2.5870739067010264	1.690653078838583	-0.39473329295833554
Ar	-3.0918502233310776	0.1225836821604774	1.1371272470840719
Ar	-2.2286284832606826	-1.8340396905409109	0.43948147795231723
Ar	-1.411874024934581	0.7031556467445275	-2.039116526085485
Ar	-1.1903426553064993	-1.4752309178291392	-1.5235425940835756
Ar	-1.38685986995779	1.5438258351273717	1.5021301346961573
Ar	-0.3485769385152622	1.9026418229144857	-0.4608849916796118
Ar	0.00986218146134063	-1.6220525824972278	0.3733293498930774
Ar	-1.165328283987177	-0.6345503597653025	2.017701944372174
Ar	5.092446222902719	0.9082930943767571	-1.1467420173327458
Ar	5.107894425959279	1.4278543421772434	1.041854152466746
Ar	1.718910840811758	1.6136526573837189	-0.7166790602370101
Ar	1.8994876576652802	-0.161833268035536	-0.29648344162376455
Ar	2.422483229172793	0.018904519737802362	-1.285272153954012
15
Step: 130	Time: 0.013000000000000001ps	Temperature: 246.9077709570106K
Ar	-3.105981533707325	-0.3969855119682825	-1.0514932686767091
Ar	-2.585738969526628	1.690651033045742	-0.39473281859081466
Ar	-3.09051466267597	0.12258357314040268	1.1371258294197857
Ar	-2.2272939888055063	-1.8340373828829526	0.4394809219588083
Ar	-1.4105414002246972	0.7031551590024976	-2.039114414236736
Ar	-1.189010205213718	-1.475229688502613	-1.52354088862272
Ar	-1.385527271959991	1.543824452465893	1.502128477036671
Ar	-0.3472440302246208	1.9026408212530999	-0.4608849765420035
Ar	0.011193833876163097	-1.6220518776470056	0.3733291323557129
Ar	-1.163995860616125	-0.634550025274184	2.0176998802993635
Ar	5.091779563139982	0.9082933265729365	-1.1467410392311825
Ar	5.107227752388684	1.427854109981064	1.0418531743651827
Ar	1.7182446114737029	1.6136454277833268	-0.7166792014613041
Ar	1.8988233759308542	-0.16182854751288991	-0.29649021802817616
Ar	2.4218118447502035	0.018906946677966475	-1.2852649157108693
15
Step: 140	Time: 0.014ps	Temperature: 246.9162009346001K
Ar	-3.104645772877096	-0.3969849363182224	-1.0514918795054573
Ar	-2.5844039030059434	1.6906488222631102	-0.39473230596637343
Ar	-3.089178922390625	0.12258345532815784	1.1371242974235407
Ar	-2.225959400707363	-1.8340348891162717	0.43948032112534724
Ar	-1.4092088326649452	0.7031546319252067	-2.0391121320716126
Ar	-1.1876778263534336	-1.4752283600337552	-1.5235390456192646
Ar	-1.3841947332668154	1.5438229582955862	1.5021266856905438
Ar	-0.34591115093574526	1.9026397379617859	-0.46088496093344056
Ar	0.01252535151847926	-1.6220511151746222	0.37332889691737436
Ar	-1.1626635106326981	-0.6345496638075896	2.017697649762943
Ar	5.091112903934028	0.9082935774951515	-1.1467399822481978
Ar	5.106561078261304	1.427853859058849	1.041852117382198
Ar	1.7175784121603903	1.6136376158682961	-0.716679353330204
Ar	1.8981592841389971	-0.1618234475607145	-0.2964975375660686
Ar	2.4211400814264747	0.018909569950033622	-1.2852570967263186
15
Step: 150	Time: 0.015000000000000001ps	Temperature: 246.9247185557092K
Ar	-3.1033098308816176	-0.396984317707284	-1.0514903866603682
Ar	-2.5830687071379876	1.6906464464891753	-0.39473175508466846
Ar	-3.0878430024732966	0.12258332872368968	1.1371226510943602
Ar	-2.224624718965298	-1.8340322092391765	0.43947967545152333
Ar	-1.4078763222560406	0.7031540655123687	-2.039109679588722
Ar	-1.1863455187264416	-1.4752269324218463	-1.5235370650719464
Ar	-1.3828622538790483	1.5438213526155513	1.5021247606567496
Ar	-0.3445782998341653	1.9026385729082378	-0.46088494497025956
Ar	0.013856734506934388	-1.6220502949609723	0.3733286435233958
Ar	-1.161331234037727	-0.634549275365429	2.017695252761489
Ar	5.090446245284862	0.9082938471435266	-1.1467388463832664
Ar	5.105894403577136	1.4278535894104736	1.0418509815172665
Ar	1.7169122420648373	1.6136292217399966	-0.7166795157286217
Ar	1.8974953817979074	-0.16181796840932194	-0.2965053994869961
Ar	2.4204679395649533	0.01891238969601119	-1.2852486976949258
15
Step: 160	Time: 0.016ps	Temperature: 246.9333240057676K
Ar	-3.1019737077189986	-0.39698365613505304	-1.0514887901405041
Ar	-2.5817333819217017	1.6906439057223133	-0.39473116594533125
Ar	-3.086506902922105	0.12258319332694108	1.1371208904311967
Ar	-2.223289943578286	-1.8340293432498491	0.4394789849368953
Ar	-1.406543868998753	0.7031534597636762	-2.0391070567865683
Ar	-1.1850132823335964	-1.475225405666112	-1.5235349469794073
Ar	-1.3815298337975328	1.5438196354248201	1.5021227019341858
Ar	-0.34324547609968387	1.9026373259590152	-0.4608849287697397
Ar	0.015187982960459976	-1.6220494168863737	0.37332837211884323
Ar	-1.1599990308321035	-0.6345488599476057	2.01769268929347
Ar	5.0897795871924885	0.9082941355181962	-1.1467376316358224
Ar	5.105227728336176	1.4278533010358037	1.0418497667698225
Ar	1.7162461003748948	1.6136202454986313	-0.7166796885406189
Ar	1.8968316683877018	-0.16181211029788423	-0.2965138029884214
Ar	2.419795419556048	0.01891540606848181	-1.285239719362989
15
Step: 170	Time: 0.017ps	Temperature: 246.94201746539895K
Ar	-3.1006374033872164	-0.3969829516010867	-1.0514870899448638
Ar	-2.5803979273559534	1.690641199960786	-0.3947305385479673
Ar	-3.085170623735043	0.12258304913785094	1.1371190154329287
Ar	-2.22195507454523	-1.834026291146345	0.43947824958099097
Ar	-1.405211472893906	0.7031528146787993	-2.039104263663553
Ar	-1.1836811171758126	-1.4752237797657248	-1.5235326913401952
Ar	-1.3801974730231716	1.5438178067223565	1.5021205095216748
Ar	-0.34191267890633126	1.9026359969795328	-0.46088491245011143
Ar	0.016519096998274488	-1.6220484808305662	0.37332808264851436
Ar	-1.1586669010167827	-0.6345484175540158	2.01768995935725
Ar	5.089112929656909	0.908294442619304	-1.1467363380052609
Ar	5.104561052538423	1.4278529939346958	1.041848473139261
Ar	1.7155799862732015	1.613610687243248	-0.7166798716494005
Ar	1.8961681433604254	-0.16180587347443237	-0.2965227472157339
Ar	2.4191225218172208	0.01891861923059918	-1.2852301625285223
15
Step: 180	Time: 0.018000000000000002ps	Temperature: 246.95079911047495K
Ar	-3.0993009178841153	-0.39698220410491325	-1.0514852860723805
Ar	-2.579062343439541	1.690638329202743	-0.3947298728921565
Ar	-3.0838341649099714	0.12258289615635413	1.1371170260983627
Ar	-2.2206201118649616	-1.8340230529265937	0.4394774693833076
Ar	-1.4038791339423757	0.7031521302573871	-2.0391013002179723
Ar	-1.182349023254063	-1.4752220547198032	-1.5235302981527632
Ar	-1.3788651715569256	1.5438158665070576	1.5021181834179627
Ar	-0.3405799074223196	1.9026345858340494	-0.4608848961305647
Ar	0.017850076739884094	-1.6220474866727104	0.37332777505693693
Ar	-1.1573348445927805	-0.634547948184549	2.0176870629510857
Ar	5.088446272678132	0.9082947684470031	-1.146734965490938
Ar	5.103894376183866	1.4278526681069965	1.0418471006249381
Ar	1.7149138989371382	1.6136005470717518	-0.7166800649373039
Ar	1.8955048061400623	-0.1617992581958551	-0.2965322312622693
Ar	2.4184492467929783	0.018922029356083784	-1.2852200280412334
15
Step: 190	Time: 0.019ps	Temperature: 246.9596691121687K
Ar	-3.09796425120741	-0.3969814136460323	-1.051483378521921
Ar	-2.577726630171189	1.6906352934462194	-0.3947291689774532
Ar	-3.0824975264446217	0.1225827343823817	1.1371149224262322
Ar	-2.219285055536243	-1.8340196285883978	0.4394766443433119
Ar	-1.4025468521450926	0.7031514064990664	-2.0390981664480208
Ar	-1.18101700056938	-1.475220230527413	-1.5235277674154708
Ar	-1.377532929399815	1.5438138147777536	1.5021157236217206
Ar	-0.3392471608099962	1.902633092385659	-0.46088487993125754
Ar	0.01918092230508337	-1.6220464342913814	0.3733274492883678
Ar	-1.1560028615611755	-0.6345474518390884	2.017684000073128
Ar	5.087779616256161	0.9082951130014554	-1.146733514092171
Ar	5.1032276992725025	1.4278523235525442	1.0418456492261712
Ar	1.7142478375387815	1.613589825080914	-0.7166802682857915
Ar	1.894841656122545	-0.1617922647278983	-0.2965422541693296
Ar	2.417775594954856	0.018925636629218305	-1.2852093168025032
15
Step: 200	Time: 0.02ps	Temperature: 246.9686276370144K
Ar	-3.096627403354684	-0.3969805802239146	-1.051481367292289
Ar	-2.5763907875495513	1.6906320926891392	-0.39472842680338605
Ar	-3.0811607083365935	0.12258256381586057	1.137112704415197
Ar	-2.2179499055577643	-1.8340160181294347	0.43947577446043967
Ar	-1.4012146275030395	0.7031506434034428	-2.039094862351789
Ar	-1.1796850491228565	-1.4752183071875637	-1.5235250991265832
Ar	-1.3762007465529191	1.543811651533206	1.5021131301315447
Ar	-0.3379144382257967	1.902631516496279	-0.46088486397332495
Ar	0.020511633813956064	-1.62204532356457	0.3733271052867917
Ar	-1.1546709519231078	-0.6345469285175098	2.0176807707214213
Ar	5.087112960391001	0.9082954762828325	-1.146731983808237
Ar	5.10256102180433	1.4278519602711672	1.0418441189422372
Ar	1.7135818012448572	1.6135785213663867	-0.7166804815754422
Ar	1.8941786926757662	-0.16178489334516305	-0.296552814926205
Ar	2.4171015668014086	0.018929441244842908	-1.285198029765362
15
Step: 210	Time: 0.021ps	Temperature: 246.9776748469659K
Ar	-3.0952903743233873	-0.3969797038380022	-1.0514792523822212
Ar	-2.575054815573211	1.690628726929312	-0.3947276463694581
Ar	-3.0798237105833572	0.12258238445671378	1.1371103720638451
Ar	-2.2166146619281446	-1.834012221547255	0.43947485973409633
Ar	-1.3998824600172537	0.7031498409700992	-2.0390913879272636
Ar	-1.1783531689156435	-1.4752162846992136	-1.5235222932842705
Ar	-1.3748686230173754	1.5438093767721102	1.5021104029459542
Ar	-0.33658173882019843	1.902629858026641	-0.4608848483788875
Ar	0.021842211386875813	-1.62204415436968	0.37332674299591995
Ar	-1.1533391156797803	-0.6345463782196821	2.0176773748939048
Ar	5.086446305082658	0.9082958582913152	-1.146730374638374
Ar	5.101894343779339	1.4278515782626846	1.041842509772374
Ar	1.712915789216694	1.613566636022713	-0.716680704685942
Ar	1.8935159151395913	-0.16177714433110466	-0.29656391247019687
Ar	2.416427162858199	0.018933443408350216	-1.2851861679344665
15
Step: 220	Time: 0.022000000000000002ps	Temperature: 246.9868108994593K
Ar	-3.0939531641108404	-0.39697878448770846	-1.0514770337903914
Ar	-2.573718714240679	1.6906251961644336	-0.3947268276751468
Ar	-3.078486533182253	0.12258219630486039	1.1371079253706913
Ar	-2.215279324645934	-1.8340082388392813	0.43947390016365645
Ar	-1.3985503496888259	0.7031489991985976	-2.039087743172329
Ar	-1.1770213599489516	-1.475214163061266	-1.5235193498866098
Ar	-1.3735365587943809	1.543806990493092	1.5021075420633951
Ar	-0.33524906173767216	1.9026281168362782	-0.4608848332710603
Ar	0.02317265514450687	-1.6220429265835243	0.3733263623591897
Ar	-1.1520073528324577	-0.6345458009454676	2.017673812588409
Ar	5.085779650331136	0.9082962590270938	-1.146728686581781
Ar	5.101227665197527	1.4278511775269065	1.041840821715781
Ar	1.7122498006101754	1.6135541691433388	-0.7166809374960753
Ar	1.8928533228258702	-0.16176901797803056	-0.2965755456866413
Ar	2.4157523836777828	0.01893764333568012	-1.2851737323660746
15
Step: 230	Time: 0.023ps	Temperature: 246.99603594747688K
Ar	-3.092615772714231	-0.3969778221724178	-1.051474711515406
Ar	-2.5723824835503972	1.690621500392088	-0.3947259707199036
Ar	-3.0771491761304883	0.12258199936021547	1.1371053643341773
Ar	-2.2139438937096085	-1.834004070002813	0.4394728957484639
Ar	-1.3972182965189004	0.7031481180884774	-2.039083928084765
Ar	-1.1756896222240516	-1.4752119422725707	-1.5235162689315829
Ar	-1.3722045538851915	1.5438044926947112	1.5021045474822365
Ar	-0.3339164061166347	1.9026262927835167	-0.4608848187739617
Ar	0.024502965207804858	-1.6220416400823232	0.37332596331976214
Ar	-1.1506756633824664	-0.6345451966947216	2.01767008380266
Ar	5.085112996136442	0.9082966784903675	-1.1467269196376175
Ar	5.100560986058888	1.4278507580636328	1.0418390547716176
Ar	1.7115838345756929	1.6135411208206245	-0.7166811798837158
Ar	1.8921909150184504	-0.16176051458709867	-0.29658771340893486
Ar	2.4150772298396954	0.018942041253314335	-1.2851607241680179
15
Step: 240	Time: 0.024ps	Temperature: 247.00535013961425K
Ar	-3.091278200130616	-0.39697681689148584	-1.0514722855558076
Ar	-2.571046123500733	1.6906176396097443	-0.3947250755031548
Ar	-3.075811639425144	0.12258179362269012	1.1371026889526727
Ar	-2.212608369117576	-1.8339997150350211	0.4394718464878319
Ar	-1.3958863005086741	0.7031471976392564	-2.0390799426622492
Ar	-1.174357955742272	-1.475209622331923	-1.5235130504170782
Ar	-1.3708726082911225	1.5438018833754594	1.502101419200774
Ar	-0.3325837710894003	1.9026243857254632	-0.46088480501272283
Ar	0.025833141698017478	-1.6220402947417034	0.37332554582052185
Ar	-1.1493440473311953	-0.634544565467293	2.0176661885342795
Ar	5.084446342498582	0.9082971166813454	-1.1467250738050043
Ar	5.099894306363415	1.4278503198726549	1.0418372089390044
Ar	1.7109178902580962	1.6135274911458592	-0.7166814317258182
Ar	1.891528690973191	-0.16175163446831503	-0.2966004144185613
Ar	2.4144017019504367	0.018946637398270724	-1.285147144499676
15
Step: 250	Time: 0.025ps	Temperature: 247.0147536201482K
Ar	-3.089940446356923	-0.39697576864423956	-1.0514697559100736
Ar	-2.5697096340899876	1.69061361381476	-0.3947241420243006
Ar	-3.074473923063166	0.12258157909219153	1.1370998992244734
Ar	-2.211272750868173	-1.8339951739329508	0.4394707523810429
Ar	-1.394554361659399	0.7031462378504297	-2.039075786902356
Ar	-1.1730263605050026	-1.4752072032380654	-1.523509694340888
Ar	-1.3695407220135478	1.5437991625337608	1.5020981572172276
Ar	-0.3312511557821319	1.9026223955179953	-0.46088479211349626
Ar	0.027163184736685237	-1.6220388904366934	0.37332510980407535
Ar	-1.1480125046800946	-0.634543907263023	2.01766212678078
Ar	5.083779689417564	0.9082975736002457	-1.146723149083022
Ar	5.0992276261111	1.4278498629537546	1.0418352842170222
Ar	1.7102519667966458	1.6135132802092707	-0.716681692898408
Ar	1.8908666499179778	-0.16174237794053167	-0.2966136474451188
Ar	2.4137258006434563	0.018951432018097368	-1.2851329945719456
15
Step: 260	Time: 0.026000000000000002ps	Temperature: 247.0242465291085K
Ar	-3.0886025113899427	-0.3969746774299772	-1.051467122576616
Ar	-2.568373015316391	1.6906094230043776	-0.3947231702827158
Ar	-3.0731360270413726	0.12258135576862285	1.1370969951478025
Ar	-2.2099370389596658	-1.8339904466935204	0.4394696134273489
Ar	-1.3932224799723785	0.7031452387214712	-2.0390714608025564
Ar	-1.171694836513691	-1.4752046849896854	-1.523506200700712
Ar	-1.3682088950539009	1.5437963301679716	1.5020947615297422
Ar	-0.32991855931479197	1.9026203220157492	-0.4608847802034654
Ar	0.028493094445642214	-1.6220374270417222	0.37332465521274977
Ar	-1.1466810354306773	-0.6345432220817465	2.017657898539568
Ar	5.0831130368933914	0.9082980492472957	-1.1467211454707127
Ar	5.098560945301939	1.427849387306705	1.0418332806047128
Ar	1.7095860633249638	1.613498488100038	-0.7166819632765727
Ar	1.8902047910527378	-0.16173274533144386	-0.29662741116634983
Ar	2.4130495265791416	0.01895642537086641	-1.2851182756472113
15
Step: 270	Time: 0.027ps	Temperature: 247.03382900235044K
Ar	-3.08726439522634	-0.396973543247968	-1.0514643855537815
Ar	-2.5670362671781017	1.6906050671757273	-0.3947221602777495
Ar	-3.0717979513564506	0.1225811236518833	1.1370939767208117
Ar	-2.2086012333902487	-1.8339855333135227	0.4394684296259712
Ar	-1.3918906554489718	0.703144200251832	-2.0390669643602175
Ar	-1.170363383769845	-1.4752020675854176	-1.5235025694941553
Ar	-1.366877127413674	1.54379338627638	1.502091232136389
Ar	-0.32858598080109286	1.9026181650721086	-0.4608847694108539
Ar	0.02982287094701675	-1.6220359044306174	0.37332418198859196
Ar	-1.1453496395845186	-0.6345425099232912	2.017653503807945
Ar	5.082446384926075	0.9082985436227322	-1.146719062967078
Ar	5.097894263935922	1.4278488929312687	1.0418311981010782
Ar	1.7089201789709851	1.613483114906306	-0.7166822427344527
Ar	1.8895431135494547	-0.1617227369775875	-0.2966417042081711
Ar	2.412372880444794	0.018961617725167617	-1.2851029890393135
15
Step: 280	Time: 0.028ps	Temperature: 247.04350117163065K
Ar	-3.0859260978626457	-0.3969723660974528	-1.0514615448398528
Ar	-2.5656993896732088	1.6906005463258258	-0.3947211120087248
Ar	-3.0704596960049564	0.12258088274186811	1.137090843941578
Ar	-2.2072653341580457	-1.8339804337896233	0.4394672009761
Ar	-1.3905588880905897	0.7031431224409418	-2.0390622975726065
Ar	-1.1690320022750316	-1.4751993510238421	-1.5234988007187287
Ar	-1.3655454190944187	1.5437903308572072	1.5020875690351643
Ar	-0.3272534193484466	1.9026159245391938	-0.4608847598649347
Ar	0.031152514363232218	-1.6220343224766014	0.37332369007336724
Ar	-1.1440183171432552	-0.634541770787478	2.017648942583106
Ar	5.081779733515618	0.9082990567268014	-1.146716901571082
Ar	5.097227582013046	1.427848379827199	1.0418290367050822
Ar	1.7082543128569052	1.6134671607151956	-0.7166825311452315
Ar	1.888881616552187	-0.1617123532243359	-0.29665652514470614
Ar	2.411695862954616	0.018967009360101723	-1.2850871361135157
15
Step: 290	Time: 0.029ps	Temperature: 247.05326316468498K
Ar	-3.0845876192952586	-0.396971145977643	-1.0514586004330464
Ar	-2.5643623827997324	1.6905958604515763	-0.3947200254749397
Ar	-3.069121260983315	0.12258063303846856	1.1370875968081053
Ar	-2.2059293412611094	-1.833975148118362	0.4394659274768951
Ar	-1.389227177898698	0.7031420052882071	-2.0390574604368843
Ar	-1.1677006920308772	-1.4751965353034855	-1.523494894371848
Ar	-1.3642137700977468	1.5437871639086063	1.5020837722239897
Ar	-0.32592087405791476	1.9026136002678504	-0.4608847516960398
Ar	0.032482024817007724	-1.6220326810522907	0.373323179408558
Ar	-1.142687068108587	-0.634541004674121	2.0176442148621385
Ar	5.081113082662031	0.9082995885597589	-1.1467146612816481
Ar	5.0965608995333	1.4278478479942418	1.0418267964156482
Ar	1.7075884640991326	1.6134506256128174	-0.7166828283811267
Ar	1.8882202991770838	-0.1617015944258968	-0.2966718724983185
Ar	2.4110184748496923	0.018972600565273456	-1.2850707182864691
15