LAMMPS data file. CGCMM Style. atom_style full. Created by charmm2lammps v1.9.2 on Текущая дата: 20.02.2023 

         699  atoms
         466  bonds
         233  angles
           0  dihedrals
           0  impropers

           2  atom types
           1  bond types
           1  angle types
           0  dihedral types
           0  improper types

      -0.011       19.989 xlo xhi
     -0.0065      19.9935 ylo yhi
        0.08        20.08 zlo zhi

Masses

       1      1.008  # HT
       2    15.9994  # OT

Pair Coeffs # lj/charmm/coul/long

       1            0.046   0.400013524445            0.046   0.400013524445  # HT
       2           0.1521    3.15057422683           0.1521    3.15057422683  # OT

Atoms # full

       1       1     2    -0.834            3.668           10.082           15.904  # OT
       2       1     1     0.417            3.224           10.451           15.101  # HT
       3       1     1     0.417            3.092           10.379           16.627  # HT
       4       2     2    -0.834            5.186           16.696           12.072  # OT
       5       2     1     0.417            6.083           16.979           11.816  # HT
       6       2     1     0.417            5.337           15.832            12.49  # HT
       7       3     2    -0.834            3.786           16.318             1.31  # OT
       8       3     1     0.417            3.781           15.388            1.196  # HT
       9       3     1     0.417            4.528            16.58            0.781  # HT
      10       4     2    -0.834            6.205            6.991           18.442  # OT
      11       4     1     0.417            6.782            7.347           19.152  # HT
      12       4     1     0.417            5.309            7.062             18.8  # HT
      13       5     2    -0.834           16.126           14.701            4.577  # OT
      14       5     1     0.417            16.07           14.272            3.726  # HT
      15       5     1     0.417           16.805           15.454            4.445  # HT
      16       6     2    -0.834             2.75            8.844            9.629  # OT
      17       6     1     0.417             2.11             8.29            9.998  # HT
      18       6     1     0.417            2.164            9.245            8.962  # HT
      19       7     2    -0.834           10.674            8.909            4.986  # OT
      20       7     1     0.417           10.998            8.871            5.932  # HT
      21       7     1     0.417            9.748             9.27            5.075  # HT
      22       8     2    -0.834            0.002            5.667           14.591  # OT
      23       8     1     0.417            0.483             5.99            13.83  # HT
      24       8     1     0.417            0.608            5.781           15.347  # HT
      25       9     2    -0.834            9.882            9.156           14.916  # OT
      26       9     1     0.417            9.574            9.753           15.597  # HT
      27       9     1     0.417           10.021            8.264           15.289  # HT
      28      10     2    -0.834            1.661            6.681            1.943  # OT
      29      10     1     0.417            1.943            5.739            1.981  # HT
      30      10     1     0.417            0.778            6.599            1.483  # HT
      31      11     2    -0.834           10.426            7.604            2.404  # OT
      32      11     1     0.417           10.761            8.401            1.994  # HT
      33      11     1     0.417           10.248            7.889            3.308  # HT
      34      12     2    -0.834           10.926            5.365            1.018  # OT
      35      12     1     0.417           11.138            4.769            1.754  # HT
      36      12     1     0.417           10.657            6.212            1.493  # HT
      37      13     2    -0.834            8.647            4.314           19.278  # OT
      38      13     1     0.417            7.964            3.611           19.326  # HT
      39      13     1     0.417            8.043            5.064           19.153  # HT
      40      14     2    -0.834            4.299           17.774            7.169  # OT
      41      14     1     0.417            3.303           17.803            7.322  # HT
      42      14     1     0.417            4.533           18.755            6.924  # HT
      43      15     2    -0.834            8.892           12.977            5.321  # OT
      44      15     1     0.417            8.119           12.478            5.443  # HT
      45      15     1     0.417            9.342           12.557            4.536  # HT
      46      16     2    -0.834            2.174           18.468            2.212  # OT
      47      16     1     0.417            2.632           17.628            2.203  # HT
      48      16     1     0.417            2.931            19.12            2.281  # HT
      49      17     2    -0.834           13.612            17.68           18.622  # OT
      50      17     1     0.417           13.744           17.414           19.508  # HT
      51      17     1     0.417           14.526           17.831           18.347  # HT
      52      18     2    -0.834           15.414            6.569            2.501  # OT
      53      18     1     0.417           16.224            6.858            2.128  # HT
      54      18     1     0.417           14.808              6.7            1.671  # HT
      55      19     2    -0.834            9.935           12.876           10.191  # OT
      56      19     1     0.417            9.709           12.098            9.634  # HT
      57      19     1     0.417            9.472           12.766           11.018  # HT
      58      20     2    -0.834           13.891            1.919            2.992  # OT
      59      20     1     0.417           14.198            2.681            3.422  # HT
      60      20     1     0.417           13.212            1.577            3.578  # HT
      61      21     2    -0.834            8.823           10.581            8.827  # OT
      62      21     1     0.417            8.183           10.753            8.148  # HT
      63      21     1     0.417            8.389           10.061            9.534  # HT
      64      22     2    -0.834            9.078           11.967           12.734  # OT
      65      22     1     0.417            8.228           11.561           12.993  # HT
      66      22     1     0.417            9.512           12.194            13.56  # HT
      67      23     2    -0.834           10.282             0.64            2.053  # OT
      68      23     1     0.417           10.367            0.959            3.016  # HT
      69      23     1     0.417            9.743            1.323            1.667  # HT
      70      24     2    -0.834            4.618            8.125            7.777  # OT
      71      24     1     0.417            5.405            7.919            8.314  # HT
      72      24     1     0.417            4.002            8.458            8.422  # HT
      73      25     2    -0.834            3.403            4.687            9.815  # OT
      74      25     1     0.417            3.109            5.272            9.097  # HT
      75      25     1     0.417            3.817            3.973            9.327  # HT
      76      26     2    -0.834            3.276            7.465           19.325  # OT
      77      26     1     0.417            2.772            6.991           19.964  # HT
      78      26     1     0.417            3.604            8.288           19.753  # HT
      79      27     2    -0.834            3.119           10.325           13.158  # OT
      80      27     1     0.417            3.598             10.9           12.512  # HT
      81      27     1     0.417             3.44             9.43           12.962  # HT
      82      28     2    -0.834            2.378            5.806           16.253  # OT
      83      28     1     0.417            2.157            6.161           17.099  # HT
      84      28     1     0.417            3.301            6.032           16.126  # HT
      85      29     2    -0.834            4.017            3.905           19.418  # OT
      86      29     1     0.417            3.142            4.042           19.132  # HT
      87      29     1     0.417            4.582            4.727           19.295  # HT
      88      30     2    -0.834            5.573           14.804            19.09  # OT
      89      30     1     0.417            5.959           15.339           19.808  # HT
      90      30     1     0.417            5.869           15.413           18.331  # HT
      91      31     2    -0.834            5.458           13.097            4.589  # OT
      92      31     1     0.417            5.673           13.019            3.612  # HT
      93      31     1     0.417            4.899           13.894            4.657  # HT
      94      32     2    -0.834             5.16           13.744            7.954  # OT
      95      32     1     0.417            6.048           13.422            8.207  # HT
      96      32     1     0.417            5.008           14.493            8.528  # HT
      97      33     2    -0.834            10.39            6.386           18.828  # OT
      98      33     1     0.417           10.688            6.484           19.731  # HT
      99      33     1     0.417            9.844            5.589           18.921  # HT
     100      34     2    -0.834            2.344           10.571            2.624  # OT
     101      34     1     0.417            2.122           10.753            3.553  # HT
     102      34     1     0.417            2.947            9.791            2.617  # HT
     103      35     2    -0.834             2.71            6.185             7.54  # OT
     104      35     1     0.417            2.467            6.236            6.561  # HT
     105      35     1     0.417             3.41            6.855             7.58  # HT
     106      36     2    -0.834           10.929            14.75            5.718  # OT
     107      36     1     0.417            10.05           14.541            5.408  # HT
     108      36     1     0.417           11.401           13.879            5.717  # HT
     109      37     2    -0.834            0.747            4.469           10.579  # OT
     110      37     1     0.417            0.426            3.568           10.339  # HT
     111      37     1     0.417            1.505            4.585             9.99  # HT
     112      38     2    -0.834            5.356            5.388           16.046  # OT
     113      38     1     0.417            5.884            6.064           16.461  # HT
     114      38     1     0.417            5.592            4.622           16.537  # HT
     115      39     2    -0.834           10.704            6.721           15.883  # OT
     116      39     1     0.417           10.901            6.912           16.836  # HT
     117      39     1     0.417           10.127            5.972           15.998  # HT
     118      40     2    -0.834            7.027            2.224           13.411  # OT
     119      40     1     0.417            6.185            2.801           13.535  # HT
     120      40     1     0.417            6.692            1.403           13.742  # HT
     121      41     2    -0.834           17.812            5.771            5.876  # OT
     122      41     1     0.417            17.22            6.316             5.38  # HT
     123      41     1     0.417           17.551            4.869            5.669  # HT
     124      42     2    -0.834            4.028            7.699           12.776  # OT
     125      42     1     0.417            4.577            7.193           12.138  # HT
     126      42     1     0.417            3.171             7.32           12.544  # HT
     127      43     2    -0.834           12.493            9.451            2.215  # OT
     128      43     1     0.417           12.908             9.84            2.987  # HT
     129      43     1     0.417           12.982            8.641            2.039  # HT
     130      44     2    -0.834           11.177             9.61            7.928  # OT
     131      44     1     0.417           10.443           10.172            8.053  # HT
     132      44     1     0.417           10.866            8.788            8.298  # HT
     133      45     2    -0.834            1.838            3.206           15.398  # OT
     134      45     1     0.417            2.201            4.081           15.545  # HT
     135      45     1     0.417            2.117            2.999           14.422  # HT
     136      46     2    -0.834           16.133           12.593           16.908  # OT
     137      46     1     0.417           15.352           12.769           16.391  # HT
     138      46     1     0.417           15.887           11.876           17.511  # HT
     139      47     2    -0.834            1.899           11.624           17.893  # OT
     140      47     1     0.417            1.139           11.678           17.305  # HT
     141      47     1     0.417            2.258           12.535           17.855  # HT
     142      48     2    -0.834             9.22           13.904            17.34  # OT
     143      48     1     0.417           10.062           14.198           17.738  # HT
     144      48     1     0.417            9.394           12.999           17.102  # HT
     145      49     2    -0.834           18.441           16.134             3.84  # OT
     146      49     1     0.417            18.61           16.488            2.968  # HT
     147      49     1     0.417           19.113           15.407            3.961  # HT
     148      50     2    -0.834            15.43            3.274            7.407  # OT
     149      50     1     0.417           15.458            2.741            8.157  # HT
     150      50     1     0.417           15.933             2.74             6.77  # HT
     151      51     2    -0.834           13.134            4.535            6.559  # OT
     152      51     1     0.417           12.434            3.932            6.938  # HT
     153      51     1     0.417           13.959            4.162            6.965  # HT
     154      52     2    -0.834           10.295           14.066            14.32  # OT
     155      52     1     0.417           10.592           14.067           15.226  # HT
     156      52     1     0.417            9.322           14.226            14.35  # HT
     157      53     2    -0.834           16.008           17.797            11.41  # OT
     158      53     1     0.417           16.695           17.702           10.684  # HT
     159      53     1     0.417           15.186           17.521           10.942  # HT
     160      54     2    -0.834           15.398            1.552           18.246  # OT
     161      54     1     0.417           16.016            1.951           17.566  # HT
     162      54     1     0.417           14.574            2.011           18.109  # HT
     163      55     2    -0.834             7.83           19.751            1.995  # OT
     164      55     1     0.417            7.257            19.87            1.247  # HT
     165      55     1     0.417            8.329           18.923            1.885  # HT
     166      56     2    -0.834           15.027           11.249            9.806  # OT
     167      56     1     0.417           15.636           10.953            9.104  # HT
     168      56     1     0.417           14.929           12.194            9.545  # HT
     169      57     2    -0.834              6.8           16.659           17.184  # OT
     170      57     1     0.417            7.143           16.649           16.327  # HT
     171      57     1     0.417            7.109           17.502           17.568  # HT
     172      58     2    -0.834           14.603            18.11            3.213  # OT
     173      58     1     0.417           14.275           17.655            3.963  # HT
     174      58     1     0.417           13.842           18.606            2.878  # HT
     175      59     2    -0.834            1.615           17.355           14.355  # OT
     176      59     1     0.417            1.225            16.48            14.42  # HT
     177      59     1     0.417            0.859           17.984           14.051  # HT
     178      60     2    -0.834            9.784            18.06           16.439  # OT
     179      60     1     0.417           10.576           18.166           15.922  # HT
     180      60     1     0.417            9.941           18.584           17.234  # HT
     181      61     2    -0.834            2.369            19.62           10.838  # OT
     182      61     1     0.417            2.051           19.425           11.701  # HT
     183      61     1     0.417            3.347           19.717           10.923  # HT
     184      62     2    -0.834           15.158           15.218            1.453  # OT
     185      62     1     0.417           15.286           16.123             1.16  # HT
     186      62     1     0.417           14.175           15.219            1.587  # HT
     187      63     2    -0.834            7.929            9.601            4.322  # OT
     188      63     1     0.417            7.364            10.34            3.912  # HT
     189      63     1     0.417            7.318            9.011             4.82  # HT
     190      64     2    -0.834             3.32            1.439            3.693  # OT
     191      64     1     0.417            3.018            1.263            2.795  # HT
     192      64     1     0.417            4.218            1.737            3.533  # HT
     193      65     2    -0.834           16.096            8.405           10.628  # OT
     194      65     1     0.417           16.085             9.39           10.715  # HT
     195      65     1     0.417           16.077            8.348            9.621  # HT
     196      66     2    -0.834           18.479            3.089            1.378  # OT
     197      66     1     0.417           17.536            3.208            1.574  # HT
     198      66     1     0.417           18.602             2.14            1.197  # HT
     199      67     2    -0.834           15.529            5.982            8.519  # OT
     200      67     1     0.417           16.398            5.632            8.812  # HT
     201      67     1     0.417           15.223            5.333            7.867  # HT
     202      68     2    -0.834            4.539            2.605            8.295  # OT
     203      68     1     0.417             5.46            2.702            8.123  # HT
     204      68     1     0.417            4.434            1.616            8.363  # HT
     205      69     2    -0.834            18.35            6.978           17.615  # OT
     206      69     1     0.417           18.415            7.291           16.702  # HT
     207      69     1     0.417           17.398            7.159           17.784  # HT
     208      70     2    -0.834           19.399           12.364             1.98  # OT
     209      70     1     0.417           19.715           11.499            1.598  # HT
     210      70     1     0.417           19.091           12.059            2.846  # HT
     211      71     2    -0.834           12.793           13.364           12.168  # OT
     212      71     1     0.417           12.787           13.548           11.223  # HT
     213      71     1     0.417           11.995           13.794           12.399  # HT
     214      72     2    -0.834            6.667            7.547            9.646  # OT
     215      72     1     0.417            6.103            6.975           10.296  # HT
     216      72     1     0.417            7.558            7.292           10.046  # HT
     217      73     2    -0.834           10.129           17.485             6.55  # OT
     218      73     1     0.417            9.231           17.467             6.92  # HT
     219      73     1     0.417           10.108           16.702            5.985  # HT
     220      74     2    -0.834            4.654            5.717            5.023  # OT
     221      74     1     0.417            5.059            5.126            4.395  # HT
     222      74     1     0.417            5.409            5.785            5.634  # HT
     223      75     2    -0.834           12.336           14.905             9.35  # OT
     224      75     1     0.417           11.849           15.588            8.883  # HT
     225      75     1     0.417           11.568           14.375             9.77  # HT
     226      76     2    -0.834            5.488           14.255           13.212  # OT
     227      76     1     0.417            6.279           14.126           13.709  # HT
     228      76     1     0.417            4.864           13.991           13.878  # HT
     229      77     2    -0.834            3.686            8.353            3.401  # OT
     230      77     1     0.417            4.494             7.93            3.084  # HT
     231      77     1     0.417            3.041            7.727            3.197  # HT
     232      78     2    -0.834           15.005           14.526           19.133  # OT
     233      78     1     0.417           15.742           13.941           19.238  # HT
     234      78     1     0.417           14.746           14.453           18.188  # HT
     235      79     2    -0.834           15.427           13.899           13.418  # OT
     236      79     1     0.417           15.598           14.703           13.915  # HT
     237      79     1     0.417           14.569           14.032           12.994  # HT
     238      80     2    -0.834           15.117           16.342            15.32  # OT
     239      80     1     0.417            14.19           16.658           15.235  # HT
     240      80     1     0.417           15.725            17.08            14.95  # HT
     241      81     2    -0.834            10.03           11.441            3.434  # OT
     242      81     1     0.417            9.274           10.827            3.422  # HT
     243      81     1     0.417           10.533           11.362            2.661  # HT
     244      82     2    -0.834            10.55            9.544           11.315  # OT
     245      82     1     0.417           10.055           10.343           11.396  # HT
     246      82     1     0.417            11.46            9.846           11.337  # HT
     247      83     2    -0.834           17.196           18.038           13.777  # OT
     248      83     1     0.417           17.492           17.085            13.75  # HT
     249      83     1     0.417           16.868           18.082           12.855  # HT
     250      84     2    -0.834           13.068            2.914           10.149  # OT
     251      84     1     0.417           12.803            2.473            9.295  # HT
     252      84     1     0.417            14.01            2.849           10.112  # HT
     253      85     2    -0.834             5.45            9.067            5.337  # OT
     254      85     1     0.417            4.722             8.84            4.711  # HT
     255      85     1     0.417            4.939             8.77            6.117  # HT
     256      86     2    -0.834            3.297           18.771           17.303  # OT
     257      86     1     0.417            3.913           19.272           17.825  # HT
     258      86     1     0.417            3.616           18.935           16.408  # HT
     259      87     2    -0.834            1.443             3.98           18.627  # OT
     260      87     1     0.417            1.536             3.05           18.247  # HT
     261      87     1     0.417            0.589            4.282           18.256  # HT
     262      88     2    -0.834            8.943           19.607            9.393  # OT
     263      88     1     0.417             9.89           19.666            9.174  # HT
     264      88     1     0.417            8.551           19.202            8.586  # HT
     265      89     2    -0.834            13.34            13.56           16.477  # OT
     266      89     1     0.417             13.4           13.568           15.542  # HT
     267      89     1     0.417           12.852           14.406           16.633  # HT
     268      90     2    -0.834           14.403            7.815           15.212  # OT
     269      90     1     0.417           13.532            8.206           14.911  # HT
     270      90     1     0.417           14.885            7.681           14.373  # HT
     271      91     2    -0.834            6.857           11.138            6.829  # OT
     272      91     1     0.417            6.107            11.75              6.8  # HT
     273      91     1     0.417             6.48           10.387            6.353  # HT
     274      92     2    -0.834           12.113            0.921            4.942  # OT
     275      92     1     0.417           12.819            0.635            5.562  # HT
     276      92     1     0.417           11.814            1.896            5.223  # HT
     277      93     2    -0.834            9.197            4.375           15.964  # OT
     278      93     1     0.417            9.163             3.59           15.387  # HT
     279      93     1     0.417            8.516            4.167           16.604  # HT
     280      94     2    -0.834            2.421            3.775            5.058  # OT
     281      94     1     0.417            2.684            2.934            4.652  # HT
     282      94     1     0.417            3.219             4.34            5.048  # HT
     283      95     2    -0.834           11.518            2.141           14.835  # OT
     284      95     1     0.417           11.356            2.769           14.101  # HT
     285      95     1     0.417           12.345            1.727           14.583  # HT
     286      96     2    -0.834            3.174            1.584           16.976  # OT
     287      96     1     0.417             2.37            2.077            16.81  # HT
     288      96     1     0.417             3.27            0.961           16.252  # HT
     289      97     2    -0.834           10.848           10.071           18.631  # OT
     290      97     1     0.417           10.345           10.477           17.907  # HT
     291      97     1     0.417           11.663           10.551           18.638  # HT
     292      98     2    -0.834            5.141            1.611            0.499  # OT
     293      98     1     0.417            4.697             1.11            1.234  # HT
     294      98     1     0.417            6.031            1.302            0.586  # HT
     295      99     2    -0.834           17.931           14.372           11.594  # OT
     296      99     1     0.417            17.01           14.424           11.287  # HT
     297      99     1     0.417           17.926           14.956           12.399  # HT
     298     100     2    -0.834            2.509            3.505            12.91  # OT
     299     100     1     0.417            2.114            4.138           12.315  # HT
     300     100     1     0.417            2.715            2.712           12.383  # HT
     301     101     2    -0.834           14.354            1.352           14.004  # OT
     302     101     1     0.417           14.694            0.623           14.565  # HT
     303     101     1     0.417           14.573            2.195           14.426  # HT
     304     102     2    -0.834            5.461            6.754            1.943  # OT
     305     102     1     0.417            6.412            6.627            2.018  # HT
     306     102     1     0.417            5.209            5.956            1.434  # HT
     307     103     2    -0.834           18.063           14.437           16.912  # OT
     308     103     1     0.417           18.739           13.888           17.373  # HT
     309     103     1     0.417           17.184           13.977           16.958  # HT
     310     104     2    -0.834            6.142           11.858           16.052  # OT
     311     104     1     0.417            5.762           12.642           15.675  # HT
     312     104     1     0.417            5.566           11.146           15.661  # HT
     313     105     2    -0.834           11.187           19.104           18.681  # OT
     314     105     1     0.417           12.029           18.566           18.863  # HT
     315     105     1     0.417           10.574           18.773           19.364  # HT
     316     106     2    -0.834            11.78           13.509            0.983  # OT
     317     106     1     0.417           12.311           13.422            1.794  # HT
     318     106     1     0.417           12.379           13.816              0.3  # HT
     319     107     2    -0.834            13.41           13.796            3.206  # OT
     320     107     1     0.417            12.86           13.342            3.952  # HT
     321     107     1     0.417           14.378           13.624            3.486  # HT